# Force         
# CofR          : (0.00000000e+00 0.00000000e+00 0.00000000e+00)
#
# Time          	(total_x total_y total_z)	(pressure_x pressure_y pressure_z)	(viscous_x viscous_y viscous_z)
1               	(1.55634243e-07 2.54765811e-07 5.74598226e-04)	(1.21416712e-07 3.36065805e-07 1.16857972e-04)	(3.42175313e-08 -8.12999942e-08 4.57740254e-04)
2               	(1.50224640e-07 4.84264953e-07 6.05417926e-04)	(7.64149165e-08 9.81540496e-07 1.97409110e-04)	(7.38097233e-08 -4.97275543e-07 4.08008815e-04)
3               	(1.17668437e-07 4.83912144e-07 5.73626092e-04)	(5.28521128e-08 1.16006804e-06 1.93661082e-04)	(6.48163243e-08 -6.76155893e-07 3.79965010e-04)
4               	(5.58702307e-08 -5.45308068e-08 4.92241703e-04)	(9.24553381e-09 7.38126764e-07 1.33522085e-04)	(4.66246969e-08 -7.92657570e-07 3.58719618e-04)
5               	(-1.86962095e-09 -7.35298635e-07 4.19628855e-04)	(-2.42047422e-08 1.28092788e-07 7.83193047e-05)	(2.23351212e-08 -8.63391424e-07 3.41309550e-04)
6               	(-3.54216032e-08 -1.18897514e-06 3.90237236e-04)	(-3.05280873e-08 -2.85862552e-07 6.36290863e-05)	(-4.89351597e-09 -9.03112587e-07 3.26608150e-04)
7               	(-3.88815079e-08 -1.28735793e-06 3.99011235e-04)	(-6.14897601e-09 -3.67133215e-07 8.49982866e-05)	(-3.27325319e-08 -9.20224719e-07 3.14012948e-04)
8               	(-4.18125074e-08 -1.17623344e-06 4.18763409e-04)	(2.32621047e-08 -2.54937552e-07 1.15630273e-04)	(-6.50746121e-08 -9.21295889e-07 3.03133135e-04)
9               	(-7.15478161e-08 -1.04655224e-06 4.25487432e-04)	(2.61103725e-08 -1.33015473e-07 1.31817241e-04)	(-9.76581887e-08 -9.13536771e-07 2.93670191e-04)
10              	(-1.40279991e-07 -1.00949991e-06 4.12968326e-04)	(-1.34352334e-08 -1.10257039e-07 1.27581015e-04)	(-1.26844757e-07 -8.99242869e-07 2.85387311e-04)
11              	(-2.30688789e-07 -1.05691102e-06 3.90442634e-04)	(-8.22772519e-08 -1.74811510e-07 1.12342140e-04)	(-1.48411537e-07 -8.82099510e-07 2.78100494e-04)
12              	(-3.27348956e-07 -1.12403099e-06 3.71275318e-04)	(-1.64706071e-07 -2.61832863e-07 9.96108789e-05)	(-1.62642885e-07 -8.62198123e-07 2.71664439e-04)
13              	(-4.01116037e-07 -1.18170634e-06 3.62496074e-04)	(-2.30152433e-07 -3.40732908e-07 9.65459446e-05)	(-1.70963604e-07 -8.40973432e-07 2.65950130e-04)
14              	(-4.45981193e-07 -1.20174664e-06 3.62149176e-04)	(-2.69572449e-07 -3.81542404e-07 1.01301308e-04)	(-1.76408744e-07 -8.20204232e-07 2.60847868e-04)
15              	(-4.61984397e-07 -1.17887459e-06 3.63656750e-04)	(-2.80051205e-07 -3.78320797e-07 1.07387059e-04)	(-1.81933192e-07 -8.00553795e-07 2.56269690e-04)
16              	(-4.61554850e-07 -1.14958092e-06 3.61563991e-04)	(-2.73337129e-07 -3.67958506e-07 1.09423875e-04)	(-1.88217722e-07 -7.81622418e-07 2.52140116e-04)
17              	(-4.59978446e-07 -1.13512109e-06 3.54972509e-04)	(-2.64217674e-07 -3.71064951e-07 1.06568275e-04)	(-1.95760772e-07 -7.64056143e-07 2.48404234e-04)
18              	(-4.62891473e-07 -1.12604639e-06 3.46466778e-04)	(-2.58251705e-07 -3.78879736e-07 1.01442336e-04)	(-2.04639768e-07 -7.47166649e-07 2.45024442e-04)
19              	(-4.69121721e-07 -1.12483260e-06 3.39309515e-04)	(-2.55691158e-07 -3.93736603e-07 9.73389063e-05)	(-2.13430563e-07 -7.31095997e-07 2.41970608e-04)
20              	(-4.68472255e-07 -1.14224019e-06 3.34819545e-04)	(-2.46536493e-07 -4.27114243e-07 9.56041304e-05)	(-2.21935763e-07 -7.15125949e-07 2.39215415e-04)
21              	(-4.63992154e-07 -1.14982920e-06 3.32264801e-04)	(-2.34375209e-07 -4.50685105e-07 9.55337605e-05)	(-2.29616945e-07 -6.99144097e-07 2.36731041e-04)
22              	(-4.45360102e-07 -1.15274368e-06 3.29940397e-04)	(-2.08707997e-07 -4.69375318e-07 9.54492556e-05)	(-2.36652106e-07 -6.83368361e-07 2.34491142e-04)
23              	(-4.22890807e-07 -1.13476248e-06 3.26693206e-04)	(-1.79297611e-07 -4.66818622e-07 9.42214910e-05)	(-2.43593195e-07 -6.67943863e-07 2.32471715e-04)
24              	(-3.88475799e-07 -1.09802530e-06 3.22482440e-04)	(-1.38333312e-07 -4.44817322e-07 9.18299717e-05)	(-2.50142487e-07 -6.53207974e-07 2.30652468e-04)
25              	(-3.46224086e-07 -1.06934720e-06 3.18037079e-04)	(-8.93178390e-08 -4.29955045e-07 8.90226169e-05)	(-2.56906247e-07 -6.39392152e-07 2.29014462e-04)
26              	(-3.08406706e-07 -1.04956744e-06 3.14104301e-04)	(-4.46353064e-08 -4.22875795e-07 8.65612896e-05)	(-2.63771399e-07 -6.26691643e-07 2.27543012e-04)
27              	(-2.70815010e-07 -1.04872793e-06 3.10893934e-04)	(3.55279670e-10 -4.33738764e-07 8.46715244e-05)	(-2.71170289e-07 -6.14989169e-07 2.26222410e-04)
28              	(-2.44106938e-07 -1.04329260e-06 3.08088523e-04)	(3.46680147e-08 -4.39216079e-07 8.30510310e-05)	(-2.78774953e-07 -6.04076519e-07 2.25037492e-04)
29              	(-2.27746940e-07 -1.02005097e-06 3.05241816e-04)	(5.88583500e-08 -4.26624446e-07 8.12669430e-05)	(-2.86605290e-07 -5.93426529e-07 2.23974873e-04)
30              	(-2.12851054e-07 -9.87588424e-07 3.02131589e-04)	(8.14497494e-08 -4.04295379e-07 7.91090947e-05)	(-2.94300803e-07 -5.83293045e-07 2.23022495e-04)
31              	(-2.04362144e-07 -9.43896261e-07 2.98880870e-04)	(9.73658860e-08 -3.70616900e-07 7.67125316e-05)	(-3.01728030e-07 -5.73279361e-07 2.22168338e-04)
32              	(-1.91412455e-07 -8.97131630e-07 2.95739689e-04)	(1.17470461e-07 -3.33787788e-07 7.43393790e-05)	(-3.08882916e-07 -5.63343842e-07 2.21400310e-04)
33              	(-1.81507867e-07 -8.36204729e-07 2.92782840e-04)	(1.33910545e-07 -2.83210495e-07 7.20762356e-05)	(-3.15418412e-07 -5.52994235e-07 2.20706604e-04)
34              	(-1.63891645e-07 -7.60572960e-07 2.89960010e-04)	(1.57136403e-07 -2.18724403e-07 6.98818745e-05)	(-3.21028049e-07 -5.41848557e-07 2.20078136e-04)
35              	(-1.30994462e-07 -6.66178046e-07 2.87148157e-04)	(1.94910264e-07 -1.36134977e-07 6.76431876e-05)	(-3.25904727e-07 -5.30043069e-07 2.19504970e-04)
36              	(-9.05574365e-08 -5.51062496e-07 2.84273988e-04)	(2.39287021e-07 -3.43260202e-08 6.52937867e-05)	(-3.29844458e-07 -5.16736475e-07 2.18980201e-04)
37              	(-5.76339807e-08 -4.25342662e-07 2.81294416e-04)	(2.75271171e-07 7.66076762e-08 6.27966936e-05)	(-3.32905152e-07 -5.01950338e-07 2.18497722e-04)
38              	(-3.43658313e-08 -2.94303880e-07 2.78284850e-04)	(3.00185552e-07 1.91960070e-07 6.02328026e-05)	(-3.34551384e-07 -4.86263950e-07 2.18052047e-04)
39              	(-6.53856518e-09 -1.47685910e-07 2.75439260e-04)	(3.28822245e-07 3.22386702e-07 5.77999605e-05)	(-3.35360810e-07 -4.70072612e-07 2.17639299e-04)
40              	(5.20034840e-08 1.40200471e-09 2.72867845e-04)	(3.87980570e-07 4.55238345e-07 5.56123857e-05)	(-3.35977086e-07 -4.53836340e-07 2.17255459e-04)
41              	(1.34875008e-07 1.54048604e-07 2.70553685e-04)	(4.71342024e-07 5.91851947e-07 5.36564498e-05)	(-3.36467016e-07 -4.37803343e-07 2.16897236e-04)
42              	(2.29624613e-07 2.98688869e-07 2.68331383e-04)	(5.66984660e-07 7.21396526e-07 5.17711730e-05)	(-3.37360046e-07 -4.22707657e-07 2.16560210e-04)
43              	(3.14171712e-07 4.16434338e-07 2.66114876e-04)	(6.53081105e-07 8.24078365e-07 4.98739560e-05)	(-3.38909392e-07 -4.07644027e-07 2.16240920e-04)
44              	(3.29883127e-07 5.04267582e-07 2.63931005e-04)	(6.69559495e-07 8.97038769e-07 4.79949588e-05)	(-3.39676369e-07 -3.92771187e-07 2.15936046e-04)
45              	(2.73368656e-07 5.95657295e-07 2.61941995e-04)	(6.12393943e-07 9.73903529e-07 4.63010233e-05)	(-3.39025288e-07 -3.78246234e-07 2.15640972e-04)
46              	(1.71748574e-07 7.40666496e-07 2.60292911e-04)	(5.08853487e-07 1.10581883e-06 4.49410166e-05)	(-3.37104913e-07 -3.65152338e-07 2.15351895e-04)
47              	(1.24610626e-07 9.45249953e-07 2.58941052e-04)	(4.58856151e-07 1.30058880e-06 4.38750428e-05)	(-3.34245525e-07 -3.55338846e-07 2.15066009e-04)
48              	(1.61294729e-07 1.16615102e-06 2.57667422e-04)	(4.92309386e-07 1.51503203e-06 4.28871594e-05)	(-3.31014657e-07 -3.48881010e-07 2.14780263e-04)
49              	(2.03756032e-07 1.33764600e-06 2.56369831e-04)	(5.31573497e-07 1.68290919e-06 4.18773372e-05)	(-3.27817465e-07 -3.45263190e-07 2.14492494e-04)
50              	(1.84519905e-07 1.49420440e-06 2.55102704e-04)	(5.08704032e-07 1.83830522e-06 4.09016257e-05)	(-3.24184127e-07 -3.44100829e-07 2.14201078e-04)
51              	(1.05002727e-07 1.72188625e-06 2.54001336e-04)	(4.25217503e-07 2.06562705e-06 4.00959052e-05)	(-3.20214776e-07 -3.43740807e-07 2.13905430e-04)
52              	(2.12327346e-08 2.01351989e-06 2.53155854e-04)	(3.36222282e-07 2.35781848e-06 3.95505171e-05)	(-3.14989547e-07 -3.44298598e-07 2.13605337e-04)
53              	(-2.28006361e-08 2.31011761e-06 2.52517854e-04)	(2.86895747e-07 2.65479974e-06 3.92169374e-05)	(-3.09696383e-07 -3.44682130e-07 2.13300917e-04)
54              	(-2.66420132e-08 2.52030017e-06 2.51998839e-04)	(2.78228502e-07 2.86622517e-06 3.90079109e-05)	(-3.04870516e-07 -3.45924995e-07 2.12990928e-04)
55              	(-2.87117368e-08 2.62028918e-06 2.51545270e-04)	(2.71845669e-07 2.96975399e-06 3.88706307e-05)	(-3.00557406e-07 -3.49464811e-07 2.12674640e-04)
56              	(-8.96870742e-08 2.67830723e-06 2.51202640e-04)	(2.08399320e-07 3.03152770e-06 3.88498768e-05)	(-2.98086394e-07 -3.53220462e-07 2.12352764e-04)
57              	(-2.08407045e-07 2.77552459e-06 2.50991023e-04)	(8.71708739e-08 3.13290531e-06 3.89666793e-05)	(-2.95577919e-07 -3.57380724e-07 2.12024344e-04)
58              	(-3.61243976e-07 2.92134369e-06 2.50852553e-04)	(-6.82643526e-08 3.28409717e-06 3.91635336e-05)	(-2.92979623e-07 -3.62753480e-07 2.11689019e-04)
59              	(-5.32179449e-07 3.07808814e-06 2.50686946e-04)	(-2.42661491e-07 3.44789556e-06 3.93402173e-05)	(-2.89517959e-07 -3.69807416e-07 2.11346729e-04)
60              	(-6.94307061e-07 3.19593372e-06 2.50404098e-04)	(-4.08377173e-07 3.57419531e-06 3.94053694e-05)	(-2.85929888e-07 -3.78261591e-07 2.10998729e-04)
61              	(-8.47748901e-07 3.21747135e-06 2.49993836e-04)	(-5.65452338e-07 3.60573128e-06 3.93478074e-05)	(-2.82296562e-07 -3.88259928e-07 2.10646028e-04)
62              	(-1.01701522e-06 3.15902140e-06 2.49495123e-04)	(-7.37630157e-07 3.55976490e-06 3.92058733e-05)	(-2.79385060e-07 -4.00743492e-07 2.10289250e-04)
63              	(-1.19344214e-06 3.06056912e-06 2.48932209e-04)	(-9.16475718e-07 3.47510061e-06 3.90006535e-05)	(-2.76966422e-07 -4.14531494e-07 2.09931556e-04)
64              	(-1.35419578e-06 2.95591918e-06 2.48289734e-04)	(-1.07819130e-06 3.38469591e-06 3.87142597e-05)	(-2.76004477e-07 -4.28776726e-07 2.09575475e-04)
65              	(-1.46424796e-06 2.83718529e-06 2.47596614e-04)	(-1.18797863e-06 3.28085856e-06 3.83738735e-05)	(-2.76269327e-07 -4.43673268e-07 2.09222740e-04)
66              	(-1.51723243e-06 2.65962197e-06 2.46914667e-04)	(-1.23866634e-06 3.11745838e-06 3.80390596e-05)	(-2.78566092e-07 -4.57836415e-07 2.08875608e-04)
67              	(-1.53399007e-06 2.41279516e-06 2.46282620e-04)	(-1.25271172e-06 2.88297773e-06 3.77456617e-05)	(-2.81278357e-07 -4.70182568e-07 2.08536958e-04)
68              	(-1.52951523e-06 2.10679653e-06 2.45722576e-04)	(-1.24662044e-06 2.58653177e-06 3.75134914e-05)	(-2.82894790e-07 -4.79735233e-07 2.08209084e-04)
69              	(-1.53622570e-06 1.77630443e-06 2.45249272e-04)	(-1.25252314e-06 2.26252233e-06 3.73551621e-05)	(-2.83702555e-07 -4.86217899e-07 2.07894110e-04)
70              	(-1.55646842e-06 1.47997956e-06 2.44879118e-04)	(-1.27356039e-06 1.97012185e-06 3.72852270e-05)	(-2.82908029e-07 -4.90142291e-07 2.07593891e-04)
71              	(-1.56919066e-06 1.24961210e-06 2.44621982e-04)	(-1.28893802e-06 1.74220415e-06 3.73120769e-05)	(-2.80252647e-07 -4.92592051e-07 2.07309905e-04)
72              	(-1.55197568e-06 1.08178849e-06 2.44481497e-04)	(-1.27565411e-06 1.57571124e-06 3.74378493e-05)	(-2.76321575e-07 -4.93922749e-07 2.07043647e-04)
73              	(-1.49271447e-06 9.61793354e-07 2.44459563e-04)	(-1.22245988e-06 1.45590226e-06 3.76644547e-05)	(-2.70254585e-07 -4.94108907e-07 2.06795109e-04)
74              	(-1.40465124e-06 8.58420189e-07 2.44552820e-04)	(-1.14264980e-06 1.35288796e-06 3.79879722e-05)	(-2.62001441e-07 -4.94467766e-07 2.06564848e-04)
75              	(-1.32140174e-06 7.55184981e-07 2.44722003e-04)	(-1.06945620e-06 1.25078525e-06 3.83694315e-05)	(-2.51945543e-07 -4.95600268e-07 2.06352572e-04)
76              	(-1.25889891e-06 6.57710760e-07 2.44944558e-04)	(-1.01910058e-06 1.15569672e-06 3.87850388e-05)	(-2.39798327e-07 -4.97985955e-07 2.06159519e-04)
77              	(-1.20976833e-06 5.89106319e-07 2.45217679e-04)	(-9.83354535e-07 1.09055187e-06 3.92312006e-05)	(-2.26413794e-07 -5.01445554e-07 2.05986479e-04)
78              	(-1.17228440e-06 5.67543247e-07 2.45576231e-04)	(-9.59566853e-07 1.07418646e-06 3.97424916e-05)	(-2.12717548e-07 -5.06643209e-07 2.05833740e-04)
79              	(-1.14357268e-06 5.86162027e-07 2.46083247e-04)	(-9.44313293e-07 1.09969964e-06 4.03821771e-05)	(-1.99259387e-07 -5.13537617e-07 2.05701070e-04)
80              	(-1.11838624e-06 6.22385608e-07 2.46763022e-04)	(-9.32189425e-07 1.14463601e-06 4.11755161e-05)	(-1.86196817e-07 -5.22250401e-07 2.05587506e-04)
81              	(-1.08786391e-06 6.66136435e-07 2.47593719e-04)	(-9.14173220e-07 1.19862275e-06 4.21007140e-05)	(-1.73690691e-07 -5.32486312e-07 2.05493005e-04)
82              	(-1.05616121e-06 7.12740351e-07 2.48536264e-04)	(-8.94442574e-07 1.25699872e-06 4.31185951e-05)	(-1.61718637e-07 -5.44258365e-07 2.05417669e-04)
83              	(-1.02634368e-06 7.58352350e-07 2.49561397e-04)	(-8.75918258e-07 1.31610718e-06 4.42000394e-05)	(-1.50425422e-07 -5.57754832e-07 2.05361358e-04)
84              	(-1.00122227e-06 8.04281774e-07 2.50639674e-04)	(-8.61135668e-07 1.37621588e-06 4.53153693e-05)	(-1.40086605e-07 -5.71934102e-07 2.05324304e-04)
85              	(-9.81675002e-07 8.51462790e-07 2.51772255e-04)	(-8.51252603e-07 1.43756670e-06 4.64659821e-05)	(-1.30422399e-07 -5.86103915e-07 2.05306273e-04)
86              	(-9.62010076e-07 9.01285150e-07 2.52994505e-04)	(-8.41190898e-07 1.50166140e-06 4.76869606e-05)	(-1.20819179e-07 -6.00376250e-07 2.05307544e-04)
87              	(-9.40980243e-07 9.48221380e-07 2.54357670e-04)	(-8.29873074e-07 1.56282308e-06 4.90298078e-05)	(-1.11107169e-07 -6.14601695e-07 2.05327862e-04)
88              	(-9.23533224e-07 9.93084067e-07 2.55875997e-04)	(-8.22410785e-07 1.62100214e-06 5.05094785e-05)	(-1.01122438e-07 -6.27918071e-07 2.05366519e-04)
89              	(-9.10026451e-07 1.03444351e-06 2.57531962e-04)	(-8.19749561e-07 1.67466641e-06 5.21093016e-05)	(-9.02768902e-08 -6.40222897e-07 2.05422661e-04)
90              	(-9.05772505e-07 1.07244906e-06 2.59318804e-04)	(-8.26999561e-07 1.72398389e-06 5.38235012e-05)	(-7.87729437e-08 -6.51534828e-07 2.05495303e-04)
91              	(-9.14372938e-07 1.11266457e-06 2.61229405e-04)	(-8.47906269e-07 1.77426840e-06 5.56460834e-05)	(-6.64666690e-08 -6.61603829e-07 2.05583322e-04)
92              	(-9.33075169e-07 1.16135836e-06 2.63255382e-04)	(-8.79671792e-07 1.83226345e-06 5.75698577e-05)	(-5.34033772e-08 -6.70905088e-07 2.05685524e-04)
93              	(-9.53530758e-07 1.21992791e-06 2.65387648e-04)	(-9.13582715e-07 1.89879584e-06 5.95866733e-05)	(-3.99480438e-08 -6.78867930e-07 2.05800974e-04)
94              	(-9.74213655e-07 1.28861799e-06 2.67608813e-04)	(-9.48590852e-07 1.97422382e-06 6.16801346e-05)	(-2.56228032e-08 -6.85605829e-07 2.05928678e-04)
95              	(-1.00107001e-06 1.36711852e-06 2.69929363e-04)	(-9.90371588e-07 2.05828857e-06 6.38621213e-05)	(-1.06984221e-08 -6.91170046e-07 2.06067242e-04)
96              	(-1.03530529e-06 1.45150616e-06 2.72336704e-04)	(-1.04012055e-06 2.14691461e-06 6.61213814e-05)	(4.81526328e-09 -6.95408442e-07 2.06215322e-04)
97              	(-1.07821567e-06 1.53524534e-06 2.74807793e-04)	(-1.09925907e-06 2.23341698e-06 6.84356072e-05)	(2.10434013e-08 -6.98171648e-07 2.06372186e-04)
98              	(-1.12715271e-06 1.61388372e-06 2.77339403e-04)	(-1.16487436e-06 2.31380102e-06 7.08024666e-05)	(3.77216474e-08 -6.99917302e-07 2.06536937e-04)
99              	(-1.17566694e-06 1.69077598e-06 2.79913256e-04)	(-1.22995401e-06 2.39132362e-06 7.32044268e-05)	(5.42870723e-08 -7.00547641e-07 2.06708829e-04)
100             	(-1.22216829e-06 1.77740095e-06 2.82531661e-04)	(-1.29317838e-06 2.47718054e-06 7.56444304e-05)	(7.10100882e-08 -6.99779589e-07 2.06887231e-04)
101             	(-1.26853417e-06 1.87558617e-06 2.85186042e-04)	(-1.35594512e-06 2.57348952e-06 7.81146207e-05)	(8.74109502e-08 -6.97903355e-07 2.07071421e-04)
102             	(-1.31199879e-06 1.98214470e-06 2.87870171e-04)	(-1.41475458e-06 2.67722447e-06 8.06097477e-05)	(1.02755796e-07 -6.95079762e-07 2.07260424e-04)
103             	(-1.35193942e-06 2.08899126e-06 2.90579273e-04)	(-1.46900987e-06 2.78084899e-06 8.31261275e-05)	(1.17070447e-07 -6.91857728e-07 2.07453146e-04)
104             	(-1.38906483e-06 2.18682589e-06 2.93293409e-04)	(-1.51967631e-06 2.87515633e-06 8.56453301e-05)	(1.30611480e-07 -6.88330443e-07 2.07648079e-04)
105             	(-1.41731400e-06 2.27299708e-06 2.95991975e-04)	(-1.56030390e-06 2.95771295e-06 8.81481044e-05)	(1.42989901e-07 -6.84715867e-07 2.07843870e-04)
106             	(-1.43072547e-06 2.34858686e-06 2.98646767e-04)	(-1.58498146e-06 3.02937845e-06 9.06071509e-05)	(1.54255987e-07 -6.80791590e-07 2.08039616e-04)
107             	(-1.43399679e-06 2.41034956e-06 3.01231031e-04)	(-1.59836274e-06 3.08746436e-06 9.29968221e-05)	(1.64365951e-07 -6.77114796e-07 2.08234209e-04)
108             	(-1.43948295e-06 2.45510442e-06 3.03715472e-04)	(-1.61283268e-06 3.12885508e-06 9.52885994e-05)	(1.73349727e-07 -6.73750661e-07 2.08426873e-04)
109             	(-1.45461131e-06 2.48843238e-06 3.06079823e-04)	(-1.63587134e-06 3.15899431e-06 9.74632116e-05)	(1.81260022e-07 -6.70561927e-07 2.08616612e-04)
110             	(-1.47281367e-06 2.51534680e-06 3.08304609e-04)	(-1.66057334e-06 3.18311696e-06 9.95018600e-05)	(1.87759671e-07 -6.67770164e-07 2.08802749e-04)
111             	(-1.48390524e-06 2.54129952e-06 3.10356952e-04)	(-1.67717864e-06 3.20664283e-06 1.01372627e-04)	(1.93273402e-07 -6.65343311e-07 2.08984325e-04)
112             	(-1.48402615e-06 2.56631995e-06 3.12220642e-04)	(-1.68175155e-06 3.22982741e-06 1.03059799e-04)	(1.97725400e-07 -6.63507458e-07 2.09160844e-04)
113             	(-1.47769872e-06 2.58282926e-06 3.13880952e-04)	(-1.67909149e-06 3.24528188e-06 1.04549253e-04)	(2.01392768e-07 -6.62452623e-07 2.09331699e-04)
114             	(-1.47009089e-06 2.58876938e-06 3.15335628e-04)	(-1.67423465e-06 3.25051423e-06 1.05839321e-04)	(2.04143764e-07 -6.61744849e-07 2.09496307e-04)
115             	(-1.46179393e-06 2.58039887e-06 3.16583390e-04)	(-1.66801460e-06 3.24177319e-06 1.06928755e-04)	(2.06220663e-07 -6.61374324e-07 2.09654635e-04)
116             	(-1.45348480e-06 2.56229365e-06 3.17622919e-04)	(-1.66108243e-06 3.22351745e-06 1.07816516e-04)	(2.07597630e-07 -6.61223798e-07 2.09806403e-04)
117             	(-1.43924152e-06 2.54375298e-06 3.18474595e-04)	(-1.64745041e-06 3.20489570e-06 1.08523081e-04)	(2.08208890e-07 -6.61142716e-07 2.09951514e-04)
118             	(-1.42354303e-06 2.52509310e-06 3.19150323e-04)	(-1.63164376e-06 3.18591746e-06 1.09060345e-04)	(2.08100731e-07 -6.60824358e-07 2.10089977e-04)
119             	(-1.40731987e-06 2.50482272e-06 3.19674578e-04)	(-1.61461600e-06 3.16474940e-06 1.09452961e-04)	(2.07296129e-07 -6.59926678e-07 2.10221618e-04)
120             	(-1.39269449e-06 2.47875387e-06 3.20073520e-04)	(-1.59842721e-06 3.13711651e-06 1.09727065e-04)	(2.05732722e-07 -6.58362635e-07 2.10346455e-04)
121             	(-1.38046117e-06 2.44961627e-06 3.20354993e-04)	(-1.58390723e-06 3.10543636e-06 1.09890404e-04)	(2.03446059e-07 -6.55820087e-07 2.10464589e-04)
122             	(-1.37410659e-06 2.42169557e-06 3.20520076e-04)	(-1.57453501e-06 3.07394161e-06 1.09944179e-04)	(2.00428420e-07 -6.52246034e-07 2.10575896e-04)
123             	(-1.36868728e-06 2.39702999e-06 3.20568744e-04)	(-1.56523665e-06 3.04440365e-06 1.09888400e-04)	(1.96549373e-07 -6.47373662e-07 2.10680344e-04)
124             	(-1.36638338e-06 2.37929696e-06 3.20499050e-04)	(-1.55819294e-06 3.02038615e-06 1.09721211e-04)	(1.91809560e-07 -6.41089192e-07 2.10777838e-04)
125             	(-1.36531938e-06 2.36578054e-06 3.20320546e-04)	(-1.55162893e-06 2.99923664e-06 1.09452376e-04)	(1.86309552e-07 -6.33456099e-07 2.10868170e-04)
126             	(-1.35708228e-06 2.35886830e-06 3.20035944e-04)	(-1.53698988e-06 2.98324555e-06 1.09084926e-04)	(1.79907594e-07 -6.24377242e-07 2.10951018e-04)
127             	(-1.33552794e-06 2.35483413e-06 3.19627753e-04)	(-1.50818611e-06 2.96874275e-06 1.08601818e-04)	(1.72658172e-07 -6.13908624e-07 2.11025934e-04)
128             	(-1.30561847e-06 2.34973602e-06 3.19078158e-04)	(-1.47019769e-06 2.95181504e-06 1.07985712e-04)	(1.64579215e-07 -6.02079024e-07 2.11092446e-04)
129             	(-1.27317234e-06 2.34533156e-06 3.18395803e-04)	(-1.42884885e-06 2.93434327e-06 1.07245693e-04)	(1.55676514e-07 -5.89011716e-07 2.11150110e-04)
130             	(-1.24745478e-06 2.34811085e-06 3.17576065e-04)	(-1.39357965e-06 2.92297552e-06 1.06377373e-04)	(1.46124863e-07 -5.74864674e-07 2.11198692e-04)
131             	(-1.22672574e-06 2.36427642e-06 3.16627178e-04)	(-1.36271287e-06 2.92399818e-06 1.05389141e-04)	(1.35987131e-07 -5.59721761e-07 2.11238036e-04)
132             	(-1.20841271e-06 2.38330079e-06 3.15528197e-04)	(-1.33367210e-06 2.92707385e-06 1.04260049e-04)	(1.25259396e-07 -5.43773063e-07 2.11268148e-04)
133             	(-1.18999410e-06 2.40252155e-06 3.14273075e-04)	(-1.30376186e-06 2.92981389e-06 1.02984079e-04)	(1.13767758e-07 -5.27292343e-07 2.11288995e-04)
134             	(-1.17008840e-06 2.42206977e-06 3.12855681e-04)	(-1.27189671e-06 2.93254749e-06 1.01555200e-04)	(1.01808312e-07 -5.10477720e-07 2.11300481e-04)
135             	(-1.14913468e-06 2.44106849e-06 3.11298065e-04)	(-1.23860323e-06 2.93453475e-06 9.99954437e-05)	(8.94685563e-08 -4.93466261e-07 2.11302621e-04)
136             	(-1.12688964e-06 2.47013473e-06 3.09612874e-04)	(-1.20382827e-06 2.94656618e-06 9.83173966e-05)	(7.69386307e-08 -4.76431449e-07 2.11295477e-04)
137             	(-1.10204269e-06 2.50368523e-06 3.07815314e-04)	(-1.16639446e-06 2.96331350e-06 9.65361187e-05)	(6.43517638e-08 -4.59628271e-07 2.11279195e-04)
138             	(-1.07758311e-06 2.53626061e-06 3.05908904e-04)	(-1.12956445e-06 2.97948378e-06 9.46549154e-05)	(5.19813331e-08 -4.43223164e-07 2.11253989e-04)
139             	(-1.04803693e-06 2.57196006e-06 3.03909822e-04)	(-1.08797593e-06 2.99909881e-06 9.26898052e-05)	(3.99390040e-08 -4.27138753e-07 2.11220017e-04)
140             	(-1.02776821e-06 2.60229888e-06 3.01824783e-04)	(-1.05607664e-06 3.01371948e-06 9.06471878e-05)	(2.83084293e-08 -4.11420600e-07 2.11177595e-04)
141             	(-1.02651196e-06 2.63677190e-06 2.99679054e-04)	(-1.04342193e-06 3.03285633e-06 8.85518747e-05)	(1.69099698e-08 -3.96084436e-07 2.11127179e-04)
142             	(-1.01845649e-06 2.66748664e-06 2.97512063e-04)	(-1.02436043e-06 3.04866073e-06 8.64428550e-05)	(5.90393753e-09 -3.81174087e-07 2.11069208e-04)
143             	(-1.00745832e-06 2.70595594e-06 2.95318557e-04)	(-1.00284694e-06 3.07269096e-06 8.43142152e-05)	(-4.61137993e-09 -3.66735022e-07 2.11004342e-04)
144             	(-1.00296919e-06 2.74339197e-06 2.93074355e-04)	(-9.88367919e-07 3.09609385e-06 8.21412131e-05)	(-1.46012745e-08 -3.52701879e-07 2.10933142e-04)
145             	(-1.00955290e-06 2.77352781e-06 2.90832322e-04)	(-9.85483483e-07 3.11254515e-06 7.99762209e-05)	(-2.40694191e-08 -3.39017336e-07 2.10856101e-04)
146             	(-1.01916571e-06 2.80148655e-06 2.88612108e-04)	(-9.86160176e-07 3.12707949e-06 7.78383841e-05)	(-3.30055348e-08 -3.25592934e-07 2.10773724e-04)
147             	(-1.03709255e-06 2.82867164e-06 2.86417631e-04)	(-9.95741967e-07 3.14125137e-06 7.57311196e-05)	(-4.13505819e-08 -3.12579723e-07 2.10686512e-04)
148             	(-1.05894981e-06 2.84710053e-06 2.84275912e-04)	(-1.00973639e-06 3.14714256e-06 7.36808882e-05)	(-4.92134201e-08 -3.00042028e-07 2.10595024e-04)
149             	(-1.09115603e-06 2.86617778e-06 2.82185970e-04)	(-1.03462119e-06 3.15408607e-06 7.16861989e-05)	(-5.65348371e-08 -2.87908293e-07 2.10499771e-04)
150             	(-1.13259584e-06 2.87780791e-06 2.80173877e-04)	(-1.06926673e-06 3.15390652e-06 6.97726839e-05)	(-6.33291139e-08 -2.76098611e-07 2.10401193e-04)
151             	(-1.18391132e-06 2.88246779e-06 2.78258721e-04)	(-1.11420975e-06 3.14720616e-06 6.79589529e-05)	(-6.97015706e-08 -2.64738373e-07 2.10299768e-04)
152             	(-1.24403728e-06 2.87745558e-06 2.76424764e-04)	(-1.16831167e-06 3.13138921e-06 6.62286074e-05)	(-7.57256112e-08 -2.53933633e-07 2.10196157e-04)
153             	(-1.31049580e-06 2.86408537e-06 2.74682966e-04)	(-1.22909404e-06 3.10797492e-06 6.45920260e-05)	(-8.14017651e-08 -2.43889548e-07 2.10090940e-04)
154             	(-1.37947238e-06 2.84911532e-06 2.73015342e-04)	(-1.29273989e-06 3.08384609e-06 6.30305881e-05)	(-8.67324928e-08 -2.34730770e-07 2.09984754e-04)
155             	(-1.43995798e-06 2.83973763e-06 2.71446632e-04)	(-1.34821865e-06 3.06629390e-06 6.15683563e-05)	(-9.17393334e-08 -2.26556272e-07 2.09878275e-04)
156             	(-1.49459105e-06 2.83770367e-06 2.70015148e-04)	(-1.39832069e-06 3.05724866e-06 6.02429902e-05)	(-9.62703576e-08 -2.19544989e-07 2.09772158e-04)
157             	(-1.55254253e-06 2.82817345e-06 2.68705063e-04)	(-1.45227180e-06 3.04190636e-06 5.90379403e-05)	(-1.00270731e-07 -2.13732912e-07 2.09667123e-04)
158             	(-1.61546911e-06 2.80573682e-06 2.67500347e-04)	(-1.51165700e-06 3.01490493e-06 5.79364458e-05)	(-1.03812111e-07 -2.09168113e-07 2.09563901e-04)
159             	(-1.68352605e-06 2.76571042e-06 2.66406456e-04)	(-1.57654502e-06 2.97158056e-06 5.69432828e-05)	(-1.06981029e-07 -2.05870141e-07 2.09463173e-04)
160             	(-1.74256665e-06 2.72653599e-06 2.65407424e-04)	(-1.63279469e-06 2.93041277e-06 5.60418608e-05)	(-1.09771958e-07 -2.03876781e-07 2.09365563e-04)
161             	(-1.78805965e-06 2.70270676e-06 2.64522330e-04)	(-1.67594524e-06 2.90586295e-06 5.52507379e-05)	(-1.12114414e-07 -2.03156186e-07 2.09271592e-04)
162             	(-1.81541968e-06 2.69074358e-06 2.63758416e-04)	(-1.70149659e-06 2.89439452e-06 5.45767200e-05)	(-1.13923085e-07 -2.03650931e-07 2.09181696e-04)
163             	(-1.83349820e-06 2.67489562e-06 2.63084646e-04)	(-1.71840057e-06 2.88027445e-06 5.39884501e-05)	(-1.15097630e-07 -2.05378835e-07 2.09096196e-04)
164             	(-1.86291302e-06 2.64636810e-06 2.62499459e-04)	(-1.74724489e-06 2.85469047e-06 5.34841435e-05)	(-1.15668131e-07 -2.08322363e-07 2.09015315e-04)
165             	(-1.90135324e-06 2.61170312e-06 2.61984106e-04)	(-1.78564104e-06 2.82420327e-06 5.30448878e-05)	(-1.15712202e-07 -2.12500143e-07 2.08939218e-04)
166             	(-1.93541755e-06 2.57720101e-06 2.61525908e-04)	(-1.82006248e-06 2.79510936e-06 5.26578952e-05)	(-1.15355067e-07 -2.17908353e-07 2.08868012e-04)
167             	(-1.96837454e-06 2.54689894e-06 2.61117007e-04)	(-1.85382103e-06 2.77132099e-06 5.23153051e-05)	(-1.14553510e-07 -2.24422054e-07 2.08801702e-04)
168             	(-1.99409921e-06 2.51539316e-06 2.60753413e-04)	(-1.88072399e-06 2.74737301e-06 5.20132288e-05)	(-1.13375215e-07 -2.31979847e-07 2.08740185e-04)
169             	(-2.02919869e-06 2.48039453e-06 2.60421942e-04)	(-1.91736417e-06 2.72092174e-06 5.17386614e-05)	(-1.11834523e-07 -2.40527213e-07 2.08683280e-04)
170             	(-2.06903524e-06 2.43553450e-06 2.60103823e-04)	(-1.95901788e-06 2.68560728e-06 5.14731167e-05)	(-1.10017360e-07 -2.50072776e-07 2.08630706e-04)
171             	(-2.12101614e-06 2.38958875e-06 2.59782236e-04)	(-2.01303699e-06 2.65014378e-06 5.12000431e-05)	(-1.07979149e-07 -2.60555033e-07 2.08582193e-04)
172             	(-2.17739995e-06 2.34302197e-06 2.59444440e-04)	(-2.07164708e-06 2.61493328e-06 5.09070579e-05)	(-1.05752871e-07 -2.71911311e-07 2.08537382e-04)
173             	(-2.23458374e-06 2.29691563e-06 2.59094190e-04)	(-2.13124857e-06 2.58104990e-06 5.05982317e-05)	(-1.03335169e-07 -2.84134271e-07 2.08495958e-04)
174             	(-2.29026403e-06 2.24876992e-06 2.58727225e-04)	(-2.18952405e-06 2.54595713e-06 5.02696324e-05)	(-1.00739979e-07 -2.97187215e-07 2.08457593e-04)
175             	(-2.35066226e-06 2.19858484e-06 2.58335435e-04)	(-2.25277410e-06 2.50955836e-06 4.99134646e-05)	(-9.78881660e-08 -3.10973520e-07 2.08421971e-04)
176             	(-2.40784640e-06 2.14021992e-06 2.57910522e-04)	(-2.31315331e-06 2.46564805e-06 4.95216364e-05)	(-9.46930931e-08 -3.25428125e-07 2.08388886e-04)
177             	(-2.46566299e-06 2.07529355e-06 2.57444968e-04)	(-2.37443795e-06 2.41576388e-06 4.90867581e-05)	(-9.12250382e-08 -3.40470335e-07 2.08358210e-04)
178             	(-2.52528310e-06 2.00393995e-06 2.56941294e-04)	(-2.43781078e-06 2.35993271e-06 4.86114235e-05)	(-8.74723144e-08 -3.55992763e-07 2.08329870e-04)
179             	(-2.57945516e-06 1.93160338e-06 2.56402617e-04)	(-2.49602810e-06 2.30358545e-06 4.80987188e-05)	(-8.34270508e-08 -3.71982065e-07 2.08303898e-04)
180             	(-2.62624033e-06 1.86165723e-06 2.55823850e-04)	(-2.54723822e-06 2.24992833e-06 4.75435093e-05)	(-7.90021152e-08 -3.88271096e-07 2.08280341e-04)
181             	(-2.66948450e-06 1.79430581e-06 2.55221441e-04)	(-2.59528714e-06 2.19894690e-06 4.69620950e-05)	(-7.41973550e-08 -4.04641085e-07 2.08259346e-04)
182             	(-2.70891258e-06 1.73132129e-06 2.54605157e-04)	(-2.64001538e-06 2.15224094e-06 4.63640437e-05)	(-6.88972055e-08 -4.20919648e-07 2.08241113e-04)
183             	(-2.74302873e-06 1.67190273e-06 2.53974728e-04)	(-2.67998118e-06 2.10880952e-06 4.57488927e-05)	(-6.30475573e-08 -4.36906782e-07 2.08225835e-04)
184             	(-2.76872379e-06 1.61627352e-06 2.53328208e-04)	(-2.71199337e-06 2.06879221e-06 4.51145081e-05)	(-5.67304246e-08 -4.52518690e-07 2.08213700e-04)