# Moment        
# CofR          : (0.00000000e+00 0.00000000e+00 0.00000000e+00)
#
# Time          	(total_x total_y total_z)	(pressure_x pressure_y pressure_z)	(viscous_x viscous_y viscous_z)
1               	(-6.60466870e-09 3.97782346e-09 -4.35995253e-05)	(-1.73260305e-09 1.56800971e-09 6.01725570e-07)	(-4.87206564e-09 2.40981374e-09 -4.42012508e-05)
2               	(-1.05689074e-08 -8.26447766e-09 -3.81691246e-05)	(-6.77354613e-09 -9.69449249e-09 1.22745246e-06)	(-3.79536129e-09 1.43001483e-09 -3.93965770e-05)
3               	(-1.26010006e-08 -1.08953874e-08 -3.53582642e-05)	(-9.63656492e-09 -1.21134605e-08 1.46905970e-06)	(-2.96443572e-09 1.21807313e-09 -3.68273239e-05)
4               	(-8.82619699e-09 -4.17076219e-09 -3.35696332e-05)	(-6.44325156e-09 -5.19906406e-09 1.41311954e-06)	(-2.38294543e-09 1.02830187e-09 -3.49827527e-05)
5               	(-8.57693991e-10 3.70352888e-09 -3.21592659e-05)	(1.17089257e-09 3.02534781e-09 1.38183509e-06)	(-2.02858656e-09 6.78181074e-10 -3.35411010e-05)
6               	(6.48405782e-09 6.66106504e-09 -3.08117935e-05)	(8.40134518e-09 6.40971834e-09 1.55745027e-06)	(-1.91728736e-09 2.51346704e-10 -3.23692437e-05)
7               	(8.73407922e-09 4.66401735e-09 -2.94930330e-05)	(1.07340742e-08 4.85861135e-09 1.90374015e-06)	(-1.99999495e-09 -1.94593996e-10 -3.13967731e-05)
8               	(6.48811748e-09 1.94347883e-09 -2.83062674e-05)	(8.66905549e-09 2.51551483e-09 2.27081551e-06)	(-2.18093801e-09 -5.72035995e-10 -3.05770829e-05)
9               	(2.81946068e-09 1.68818148e-09 -2.73454406e-05)	(5.19279678e-09 2.55552631e-09 2.52934472e-06)	(-2.37333610e-09 -8.67344834e-10 -2.98747853e-05)
10              	(1.50092400e-09 4.12067187e-09 -2.66142666e-05)	(4.02293569e-09 5.22632642e-09 2.64860522e-06)	(-2.52201169e-09 -1.10565455e-09 -2.92628718e-05)
11              	(3.72963141e-09 7.58399038e-09 -2.60384891e-05)	(6.37484320e-09 8.94742800e-09 2.68408412e-06)	(-2.64521179e-09 -1.36343763e-09 -2.87225732e-05)
12              	(7.69142556e-09 1.02016359e-08 -2.55244879e-05)	(1.04387021e-08 1.18673824e-08 2.71759081e-06)	(-2.74727658e-09 -1.66574654e-09 -2.82420787e-05)
13              	(1.12087557e-08 1.20845583e-08 -2.50172996e-05)	(1.40307883e-08 1.40946836e-08 2.79674674e-06)	(-2.82203255e-09 -2.01012524e-09 -2.78140463e-05)
14              	(1.29447843e-08 1.32109394e-08 -2.45170359e-05)	(1.58179059e-08 1.55800579e-08 2.91598995e-06)	(-2.87312153e-09 -2.36911848e-09 -2.74330259e-05)
15              	(1.32278834e-08 1.40205294e-08 -2.40552593e-05)	(1.61322004e-08 1.67387460e-08 3.03875930e-06)	(-2.90431691e-09 -2.71821658e-09 -2.70940186e-05)
16              	(1.28974925e-08 1.46818235e-08 -2.36613376e-05)	(1.58156644e-08 1.77355553e-08 3.13073707e-06)	(-2.91817191e-09 -3.05373180e-09 -2.67920746e-05)
17              	(1.37690058e-08 1.54740751e-08 -2.33396672e-05)	(1.67092636e-08 1.88556367e-08 3.18271892e-06)	(-2.94025780e-09 -3.38156160e-09 -2.65223861e-05)
18              	(1.58538880e-08 1.63014601e-08 -2.30728339e-05)	(1.88184723e-08 1.99952503e-08 3.20817464e-06)	(-2.96458430e-09 -3.69379014e-09 -2.62810085e-05)
19              	(1.82839888e-08 1.69206422e-08 -2.28358747e-05)	(2.12828430e-08 2.09170493e-08 3.22904146e-06)	(-2.99885415e-09 -3.99640712e-09 -2.60649162e-05)
20              	(1.92342305e-08 1.74953733e-08 -2.26145659e-05)	(2.22663143e-08 2.17770494e-08 3.25722952e-06)	(-3.03208377e-09 -4.28167609e-09 -2.58717955e-05)
21              	(1.91588125e-08 1.77873743e-08 -2.24072821e-05)	(2.22149472e-08 2.23304372e-08 3.29234127e-06)	(-3.05613469e-09 -4.54306291e-09 -2.56996234e-05)
22              	(1.83624388e-08 1.78379830e-08 -2.22213138e-05)	(2.14315813e-08 2.26264449e-08 3.32520748e-06)	(-3.06914252e-09 -4.78846193e-09 -2.55465212e-05)
23              	(1.76984344e-08 1.76495561e-08 -2.20629145e-05)	(2.07692462e-08 2.26776714e-08 3.34778440e-06)	(-3.07081171e-09 -5.02811534e-09 -2.54106989e-05)
24              	(1.75136264e-08 1.73748499e-08 -2.19322349e-05)	(2.05668045e-08 2.26348238e-08 3.35830062e-06)	(-3.05317810e-09 -5.25997388e-09 -2.52905356e-05)
25              	(1.79675039e-08 1.73933375e-08 -2.18243483e-05)	(2.09874262e-08 2.28812177e-08 3.36031361e-06)	(-3.01992235e-09 -5.48788010e-09 -2.51846620e-05)
26              	(1.86877596e-08 1.75698970e-08 -2.17330440e-05)	(2.16649944e-08 2.32779694e-08 3.35884271e-06)	(-2.97723474e-09 -5.70807237e-09 -2.50918867e-05)
27              	(1.93908563e-08 1.77430463e-08 -2.16550480e-05)	(2.23151575e-08 2.36605414e-08 3.35615055e-06)	(-2.92430128e-09 -5.91749513e-09 -2.50111986e-05)
28              	(1.98265617e-08 1.74911537e-08 -2.15907913e-05)	(2.27000127e-08 2.36079324e-08 3.35083309e-06)	(-2.87345092e-09 -6.11677867e-09 -2.49416244e-05)
29              	(2.03551961e-08 1.67009040e-08 -2.15417021e-05)	(2.31709294e-08 2.29866504e-08 3.34052661e-06)	(-2.81573329e-09 -6.28574643e-09 -2.48822287e-05)
30              	(2.09391988e-08 1.54836734e-08 -2.15079708e-05)	(2.36888546e-08 2.19147390e-08 3.32411933e-06)	(-2.74965583e-09 -6.43106561e-09 -2.48320901e-05)
31              	(2.12993897e-08 1.41615643e-08 -2.14871650e-05)	(2.39830614e-08 2.07142548e-08 3.30316767e-06)	(-2.68367166e-09 -6.55269047e-09 -2.47903326e-05)
32              	(2.14486528e-08 1.29483970e-08 -2.14759973e-05)	(2.40680446e-08 1.96002299e-08 3.28016165e-06)	(-2.61939179e-09 -6.65183288e-09 -2.47561590e-05)
33              	(2.12483555e-08 1.17311891e-08 -2.14726452e-05)	(2.38067529e-08 1.84579305e-08 3.25617265e-06)	(-2.55839746e-09 -6.72674135e-09 -2.47288178e-05)
34              	(2.09288314e-08 1.01785390e-08 -2.14759815e-05)	(2.34268467e-08 1.69653460e-08 3.23158832e-06)	(-2.49801536e-09 -6.78680706e-09 -2.47075698e-05)
35              	(2.04274774e-08 7.96869468e-09 -2.14856641e-05)	(2.28757356e-08 1.48007637e-08 3.20603902e-06)	(-2.44825821e-09 -6.83206902e-09 -2.46917031e-05)
36              	(1.99988145e-08 4.63953656e-09 -2.15010751e-05)	(2.24072280e-08 1.14937071e-08 3.17943882e-06)	(-2.40841352e-09 -6.85417050e-09 -2.46805139e-05)
37              	(1.93237622e-08 8.52905946e-10 -2.15216916e-05)	(2.17036523e-08 7.70992472e-09 3.15164259e-06)	(-2.37989016e-09 -6.85701877e-09 -2.46733342e-05)
38              	(1.82332499e-08 -2.41183507e-09 -2.15459056e-05)	(2.05965860e-08 4.43460216e-09 3.12360502e-06)	(-2.36333605e-09 -6.84643723e-09 -2.46695106e-05)
39              	(1.77830239e-08 -5.25339528e-09 -2.15709003e-05)	(2.01348811e-08 1.57073287e-09 3.09750770e-06)	(-2.35185725e-09 -6.82412815e-09 -2.46684080e-05)
40              	(1.81097279e-08 -8.60396107e-09 -2.15948775e-05)	(2.04683034e-08 -1.80553402e-09 3.07460449e-06)	(-2.35857550e-09 -6.79842705e-09 -2.46694820e-05)
41              	(1.93553734e-08 -1.31907676e-08 -2.16174179e-05)	(2.17267392e-08 -6.41229954e-09 3.05479771e-06)	(-2.37136581e-09 -6.77846810e-09 -2.46722156e-05)
42              	(2.07903151e-08 -1.84235744e-08 -2.16400304e-05)	(2.31812352e-08 -1.16562965e-08 3.03610061e-06)	(-2.39092006e-09 -6.76727794e-09 -2.46761310e-05)
43              	(2.24707345e-08 -2.41088450e-08 -2.16633749e-05)	(2.48733304e-08 -1.73521827e-08 3.01742462e-06)	(-2.40259589e-09 -6.75666225e-09 -2.46807996e-05)
44              	(2.33553196e-08 -2.96130130e-08 -2.16871670e-05)	(2.57524253e-08 -2.28674909e-08 2.99867181e-06)	(-2.39710565e-09 -6.74552208e-09 -2.46858388e-05)
45              	(2.28307772e-08 -3.42748144e-08 -2.17096206e-05)	(2.52020305e-08 -2.75430185e-08 2.98128618e-06)	(-2.37125323e-09 -6.73179583e-09 -2.46909068e-05)
46              	(2.18631459e-08 -3.75908830e-08 -2.17290482e-05)	(2.42016045e-08 -3.08754482e-08 2.96665919e-06)	(-2.33845858e-09 -6.71543478e-09 -2.46957074e-05)
47              	(2.19341484e-08 -3.98318534e-08 -2.17456054e-05)	(2.42564939e-08 -3.31329913e-08 2.95438306e-06)	(-2.32234548e-09 -6.69886217e-09 -2.46999884e-05)
48              	(2.40602865e-08 -4.20752930e-08 -2.17613925e-05)	(2.63765206e-08 -3.54039690e-08 2.94212322e-06)	(-2.31623412e-09 -6.67132391e-09 -2.47035157e-05)
49              	(2.73382974e-08 -4.53276474e-08 -2.17773629e-05)	(2.96621696e-08 -3.86960946e-08 2.92874052e-06)	(-2.32387218e-09 -6.63155281e-09 -2.47061034e-05)
50              	(3.07073510e-08 -4.93552522e-08 -2.17927663e-05)	(3.30570235e-08 -4.27886368e-08 2.91482255e-06)	(-2.34967253e-09 -6.56661544e-09 -2.47075889e-05)
51              	(3.32136061e-08 -5.34511068e-08 -2.18058989e-05)	(3.55894009e-08 -4.69787468e-08 2.90193563e-06)	(-2.37579479e-09 -6.47235995e-09 -2.47078345e-05)
52              	(3.49874536e-08 -5.76406450e-08 -2.18155223e-05)	(3.73972047e-08 -5.12901121e-08 2.89119812e-06)	(-2.40975108e-09 -6.35053290e-09 -2.47067205e-05)
53              	(3.54273407e-08 -6.20086859e-08 -2.18218971e-05)	(3.78712899e-08 -5.57982048e-08 2.88225539e-06)	(-2.44394922e-09 -6.21048114e-09 -2.47041525e-05)
54              	(3.51235672e-08 -6.56864549e-08 -2.18255993e-05)	(3.76293302e-08 -5.96244417e-08 2.87446350e-06)	(-2.50576300e-09 -6.06201321e-09 -2.47000628e-05)
55              	(3.49585831e-08 -6.81229379e-08 -2.18268864e-05)	(3.75558705e-08 -6.22004168e-08 2.86750859e-06)	(-2.59728741e-09 -5.92252119e-09 -2.46943949e-05)
56              	(3.62599838e-08 -6.90310098e-08 -2.18253868e-05)	(3.89547523e-08 -6.32554646e-08 2.86171255e-06)	(-2.69476853e-09 -5.77554515e-09 -2.46870994e-05)
57              	(3.91380690e-08 -6.93306607e-08 -2.18209765e-05)	(4.19373796e-08 -6.36866200e-08 2.85716186e-06)	(-2.79931055e-09 -5.64404073e-09 -2.46781384e-05)
58              	(4.27010462e-08 -7.03212994e-08 -2.18141235e-05)	(4.56259407e-08 -6.48190400e-08 2.85334290e-06)	(-2.92489449e-09 -5.50225936e-09 -2.46674664e-05)
59              	(4.61132353e-08 -7.26447437e-08 -2.18056700e-05)	(4.91848870e-08 -6.72722347e-08 2.84940868e-06)	(-3.07165171e-09 -5.37250898e-09 -2.46550786e-05)
60              	(4.86489870e-08 -7.60436327e-08 -2.17963838e-05)	(5.18821920e-08 -7.07991735e-08 2.84459294e-06)	(-3.23320506e-09 -5.24445914e-09 -2.46409767e-05)
61              	(5.02392625e-08 -7.93544845e-08 -2.17863964e-05)	(5.36531690e-08 -7.42297772e-08 2.83884443e-06)	(-3.41390653e-09 -5.12470727e-09 -2.46252408e-05)
62              	(5.13485497e-08 -8.13688311e-08 -2.17753754e-05)	(5.49768270e-08 -7.63717312e-08 2.83258846e-06)	(-3.62827733e-09 -4.99709984e-09 -2.46079638e-05)
63              	(5.21729711e-08 -8.16170536e-08 -2.17633040e-05)	(5.60228786e-08 -7.67482744e-08 2.82599815e-06)	(-3.84990753e-09 -4.86877924e-09 -2.45893021e-05)
64              	(5.25453986e-08 -8.04397845e-08 -2.17506333e-05)	(5.66144428e-08 -7.57038729e-08 2.81883390e-06)	(-4.06904427e-09 -4.73591162e-09 -2.45694672e-05)
65              	(5.19563063e-08 -7.86129321e-08 -2.17374072e-05)	(5.62679469e-08 -7.40165090e-08 2.81126722e-06)	(-4.31164056e-09 -4.59642309e-09 -2.45486744e-05)
66              	(5.05971427e-08 -7.63386708e-08 -2.17234313e-05)	(5.51543453e-08 -7.18849117e-08 2.80374186e-06)	(-4.55720267e-09 -4.45375914e-09 -2.45271732e-05)
67              	(4.87831732e-08 -7.34063134e-08 -2.17086516e-05)	(5.35670791e-08 -6.90852191e-08 2.79651648e-06)	(-4.78390590e-09 -4.32109423e-09 -2.45051681e-05)
68              	(4.64489251e-08 -6.96665442e-08 -2.16931805e-05)	(5.14259145e-08 -6.54530259e-08 2.78974937e-06)	(-4.97698938e-09 -4.21351825e-09 -2.44829299e-05)
69              	(4.37348993e-08 -6.52999442e-08 -2.16770644e-05)	(4.88741614e-08 -6.11861784e-08 2.78360930e-06)	(-5.13926209e-09 -4.11376572e-09 -2.44606737e-05)
70              	(4.06248128e-08 -6.02644001e-08 -2.16604849e-05)	(4.58929000e-08 -5.62324724e-08 2.77812904e-06)	(-5.26808715e-09 -4.03192768e-09 -2.44386139e-05)
71              	(3.74868376e-08 -5.43333339e-08 -2.16437151e-05)	(4.28647551e-08 -5.03569550e-08 2.77326081e-06)	(-5.37791756e-09 -3.97637897e-09 -2.44169759e-05)
72              	(3.49182998e-08 -4.77287061e-08 -2.16271731e-05)	(4.03860406e-08 -4.37994515e-08 2.76878898e-06)	(-5.46774079e-09 -3.92925464e-09 -2.43959621e-05)
73              	(3.31328535e-08 -4.12992469e-08 -2.16111784e-05)	(3.86630903e-08 -3.73895516e-08 2.76458534e-06)	(-5.53023683e-09 -3.90969534e-09 -2.43757638e-05)
74              	(3.19292611e-08 -3.56153398e-08 -2.15959189e-05)	(3.75141792e-08 -3.17029147e-08 2.76062401e-06)	(-5.58491807e-09 -3.91242520e-09 -2.43565429e-05)
75              	(3.10821350e-08 -3.08913318e-08 -2.15817585e-05)	(3.67110605e-08 -2.69577778e-08 2.75668726e-06)	(-5.62892557e-09 -3.93355401e-09 -2.43384458e-05)
76              	(3.02655834e-08 -2.72410350e-08 -2.15688101e-05)	(3.59302028e-08 -2.32542166e-08 2.75278805e-06)	(-5.66461936e-09 -3.98681849e-09 -2.43215981e-05)
77              	(2.94972955e-08 -2.47934219e-08 -2.15569126e-05)	(3.51977379e-08 -2.07236528e-08 2.74917415e-06)	(-5.70044235e-09 -4.06976912e-09 -2.43060867e-05)
78              	(2.89604484e-08 -2.35371838e-08 -2.15456136e-05)	(3.46969388e-08 -1.93752904e-08 2.74636927e-06)	(-5.73649045e-09 -4.16189345e-09 -2.42919829e-05)
79              	(2.86624502e-08 -2.34417229e-08 -2.15343531e-05)	(3.44373905e-08 -1.91843870e-08 2.74500204e-06)	(-5.77494031e-09 -4.25733592e-09 -2.42793551e-05)
80              	(2.87840903e-08 -2.40476227e-08 -2.15230049e-05)	(3.45992540e-08 -1.96879180e-08 2.74524086e-06)	(-5.81516372e-09 -4.35970473e-09 -2.42682458e-05)
81              	(2.92272121e-08 -2.50665787e-08 -2.15118946e-05)	(3.50730114e-08 -2.05977213e-08 2.74679881e-06)	(-5.84579931e-09 -4.46885734e-09 -2.42586934e-05)
82              	(2.98262594e-08 -2.65035707e-08 -2.15013740e-05)	(3.56976139e-08 -2.19208547e-08 2.74934920e-06)	(-5.87135446e-09 -4.58271599e-09 -2.42507232e-05)
83              	(3.05265986e-08 -2.86059811e-08 -2.14915951e-05)	(3.64252293e-08 -2.39112064e-08 2.75275195e-06)	(-5.89863065e-09 -4.69477472e-09 -2.42443471e-05)
84              	(3.12941340e-08 -3.13559561e-08 -2.14826863e-05)	(3.72224033e-08 -2.65630531e-08 2.75686599e-06)	(-5.92826925e-09 -4.79290301e-09 -2.42395523e-05)
85              	(3.21465103e-08 -3.46844985e-08 -2.14745622e-05)	(3.81048744e-08 -2.98096783e-08 2.76175382e-06)	(-5.95836405e-09 -4.87482021e-09 -2.42363161e-05)
86              	(3.29758666e-08 -3.83783780e-08 -2.14669034e-05)	(3.89614423e-08 -3.34359515e-08 2.76769823e-06)	(-5.98557574e-09 -4.94242650e-09 -2.42346017e-05)
87              	(3.35579057e-08 -4.20806674e-08 -2.14592295e-05)	(3.95672982e-08 -3.70821585e-08 2.77513656e-06)	(-6.00939256e-09 -4.99850888e-09 -2.42343660e-05)
88              	(3.38934185e-08 -4.56462225e-08 -2.14513652e-05)	(3.99194054e-08 -4.05995301e-08 2.78418215e-06)	(-6.02598689e-09 -5.04669238e-09 -2.42355474e-05)
89              	(3.39071592e-08 -4.90020037e-08 -2.14433946e-05)	(3.99441714e-08 -4.39122025e-08 2.79468880e-06)	(-6.03701224e-09 -5.08980122e-09 -2.42380834e-05)
90              	(3.36961597e-08 -5.22213142e-08 -2.14352509e-05)	(3.97401148e-08 -4.70962458e-08 2.80665407e-06)	(-6.04395511e-09 -5.12506839e-09 -2.42419050e-05)
91              	(3.34932273e-08 -5.52737311e-08 -2.14268520e-05)	(3.95419442e-08 -5.01241923e-08 2.82009040e-06)	(-6.04871683e-09 -5.14953871e-09 -2.42469424e-05)
92              	(3.33848111e-08 -5.81298564e-08 -2.14181163e-05)	(3.94400086e-08 -5.29756286e-08 2.83500562e-06)	(-6.05519750e-09 -5.15422780e-09 -2.42531219e-05)
93              	(3.33458919e-08 -6.06711375e-08 -2.14089864e-05)	(3.94065331e-08 -5.55306155e-08 2.85137993e-06)	(-6.06064124e-09 -5.14052206e-09 -2.42603664e-05)
94              	(3.33070639e-08 -6.27774176e-08 -2.13995356e-05)	(3.93689233e-08 -5.76593791e-08 2.86906074e-06)	(-6.06185942e-09 -5.11803857e-09 -2.42685963e-05)
95              	(3.31532584e-08 -6.45157271e-08 -2.13895545e-05)	(3.92096900e-08 -5.94295140e-08 2.88817482e-06)	(-6.05643161e-09 -5.08621311e-09 -2.42777293e-05)
96              	(3.29068940e-08 -6.60742677e-08 -2.13791242e-05)	(3.89526954e-08 -6.10277218e-08 2.90857953e-06)	(-6.04580141e-09 -5.04654586e-09 -2.42877037e-05)
97              	(3.26683657e-08 -6.76488461e-08 -2.13683798e-05)	(3.86883586e-08 -6.26479174e-08 2.93006179e-06)	(-6.01999291e-09 -5.00092874e-09 -2.42984415e-05)
98              	(3.25240110e-08 -6.92471118e-08 -2.13572577e-05)	(3.85160933e-08 -6.43003229e-08 2.95261289e-06)	(-5.99208225e-09 -4.94678886e-09 -2.43098706e-05)
99              	(3.24540753e-08 -7.06168313e-08 -2.13458793e-05)	(3.84146856e-08 -6.57310175e-08 2.97604747e-06)	(-5.96061025e-09 -4.88581382e-09 -2.43219267e-05)
100             	(3.24696653e-08 -7.17391428e-08 -2.13341995e-05)	(3.83925602e-08 -6.69162429e-08 3.00034130e-06)	(-5.92289486e-09 -4.82289992e-09 -2.43345407e-05)
101             	(3.25229244e-08 -7.26065397e-08 -2.13223005e-05)	(3.84076704e-08 -6.78515721e-08 3.02535247e-06)	(-5.88474600e-09 -4.75496763e-09 -2.43476530e-05)
102             	(3.24705455e-08 -7.33768212e-08 -2.13102388e-05)	(3.83162074e-08 -6.86965542e-08 3.05096874e-06)	(-5.84566189e-09 -4.68026699e-09 -2.43612075e-05)
103             	(3.22071464e-08 -7.41314028e-08 -2.12980371e-05)	(3.80165001e-08 -6.95303850e-08 3.07711028e-06)	(-5.80935372e-09 -4.60101781e-09 -2.43751473e-05)
104             	(3.17427752e-08 -7.47668349e-08 -2.12858659e-05)	(3.75185329e-08 -7.02478046e-08 3.10355390e-06)	(-5.77575771e-09 -4.51903036e-09 -2.43894198e-05)
105             	(3.10660453e-08 -7.52661104e-08 -2.12738778e-05)	(3.68127578e-08 -7.08305169e-08 3.13009529e-06)	(-5.74671254e-09 -4.43559353e-09 -2.44039731e-05)
106             	(3.01324566e-08 -7.56805892e-08 -2.12622904e-05)	(3.58560664e-08 -7.13282012e-08 3.15646353e-06)	(-5.72360983e-09 -4.35238802e-09 -2.44187539e-05)
107             	(2.90370145e-08 -7.60266645e-08 -2.12513134e-05)	(3.47486973e-08 -7.17533667e-08 3.18239006e-06)	(-5.71168280e-09 -4.27329782e-09 -2.44337034e-05)
108             	(2.79037801e-08 -7.61795656e-08 -2.12412434e-05)	(3.36196679e-08 -7.19771930e-08 3.20752846e-06)	(-5.71588776e-09 -4.20237264e-09 -2.44487719e-05)
109             	(2.68426736e-08 -7.62275607e-08 -2.12322766e-05)	(3.25754657e-08 -7.20852547e-08 3.23163649e-06)	(-5.73279217e-09 -4.14230596e-09 -2.44639131e-05)
110             	(2.58786983e-08 -7.63784411e-08 -2.12245907e-05)	(3.16408219e-08 -7.22859703e-08 3.25448273e-06)	(-5.76212353e-09 -4.09247088e-09 -2.44790734e-05)
111             	(2.49463899e-08 -7.66738868e-08 -2.12185054e-05)	(3.07514019e-08 -7.26155812e-08 3.27570609e-06)	(-5.80501199e-09 -4.05830562e-09 -2.44942115e-05)
112             	(2.39983255e-08 -7.70418944e-08 -2.12141681e-05)	(2.98603219e-08 -7.30014280e-08 3.29512280e-06)	(-5.86199636e-09 -4.04046639e-09 -2.45092909e-05)
113             	(2.30629699e-08 -7.72230662e-08 -2.12116692e-05)	(2.89945215e-08 -7.31871525e-08 3.31259049e-06)	(-5.93155164e-09 -4.03591368e-09 -2.45242597e-05)
114             	(2.22321177e-08 -7.70810022e-08 -2.12109929e-05)	(2.82437745e-08 -7.30364166e-08 3.32808061e-06)	(-6.01165678e-09 -4.04458560e-09 -2.45390735e-05)
115             	(2.16253486e-08 -7.65766351e-08 -2.12120658e-05)	(2.77237444e-08 -7.25111282e-08 3.34161389e-06)	(-6.09839582e-09 -4.06550694e-09 -2.45536797e-05)
116             	(2.14214507e-08 -7.58672653e-08 -2.12148408e-05)	(2.76170583e-08 -7.17681278e-08 3.35319099e-06)	(-6.19560760e-09 -4.09913750e-09 -2.45680318e-05)
117             	(2.15585851e-08 -7.52329757e-08 -2.12190814e-05)	(2.78551195e-08 -7.10909486e-08 3.36300211e-06)	(-6.29653442e-09 -4.14202710e-09 -2.45820836e-05)
118             	(2.19215895e-08 -7.45362877e-08 -2.12246496e-05)	(2.83207791e-08 -7.03412818e-08 3.37114746e-06)	(-6.39918960e-09 -4.19500592e-09 -2.45957971e-05)
119             	(2.23168963e-08 -7.37412668e-08 -2.12312978e-05)	(2.88189459e-08 -6.94836380e-08 3.37783710e-06)	(-6.50204961e-09 -4.25762879e-09 -2.46091349e-05)
120             	(2.26596041e-08 -7.26621860e-08 -2.12387650e-05)	(2.92600713e-08 -6.83339150e-08 3.38329890e-06)	(-6.60046716e-09 -4.32827104e-09 -2.46220639e-05)
121             	(2.29408777e-08 -7.11673340e-08 -2.12469577e-05)	(2.96346902e-08 -6.67619326e-08 3.38759026e-06)	(-6.69381256e-09 -4.40540135e-09 -2.46345480e-05)
122             	(2.33247398e-08 -6.93351652e-08 -2.12558427e-05)	(3.01024654e-08 -6.48494229e-08 3.39071137e-06)	(-6.77772558e-09 -4.48574227e-09 -2.46465541e-05)
123             	(2.38173451e-08 -6.74141852e-08 -2.12653806e-05)	(3.06712542e-08 -6.28486043e-08 3.39265976e-06)	(-6.85390907e-09 -4.56558087e-09 -2.46580403e-05)
124             	(2.44363730e-08 -6.56284101e-08 -2.12755474e-05)	(3.13629401e-08 -6.09885510e-08 3.39341611e-06)	(-6.92656713e-09 -4.63985903e-09 -2.46689635e-05)
125             	(2.49910021e-08 -6.39802318e-08 -2.12862371e-05)	(3.19884363e-08 -5.92751556e-08 3.39304897e-06)	(-6.99743411e-09 -4.70507625e-09 -2.46792860e-05)
126             	(2.54167938e-08 -6.23263826e-08 -2.12974248e-05)	(3.24839214e-08 -5.75669805e-08 3.39154527e-06)	(-7.06712755e-09 -4.75940204e-09 -2.46889701e-05)
127             	(2.56079176e-08 -6.05094178e-08 -2.13092904e-05)	(3.27385860e-08 -5.57097139e-08 3.38869148e-06)	(-7.13066849e-09 -4.79970398e-09 -2.46979819e-05)
128             	(2.55460550e-08 -5.83847378e-08 -2.13220190e-05)	(3.27317155e-08 -5.35585213e-08 3.38427137e-06)	(-7.18566047e-09 -4.82621650e-09 -2.47062903e-05)
129             	(2.52679482e-08 -5.61678803e-08 -2.13355409e-05)	(3.25002018e-08 -5.13270808e-08 3.37832807e-06)	(-7.23225363e-09 -4.84079949e-09 -2.47138690e-05)
130             	(2.49659690e-08 -5.40516420e-08 -2.13499043e-05)	(3.22375912e-08 -4.92062127e-08 3.37079041e-06)	(-7.27162214e-09 -4.84542930e-09 -2.47206948e-05)
131             	(2.48062208e-08 -5.23489572e-08 -2.13650475e-05)	(3.21096610e-08 -4.75063993e-08 3.36170024e-06)	(-7.30344016e-09 -4.84255786e-09 -2.47267477e-05)
132             	(2.47177242e-08 -5.10012715e-08 -2.13811878e-05)	(3.20476414e-08 -4.61705413e-08 3.35082138e-06)	(-7.32991717e-09 -4.83073024e-09 -2.47320092e-05)
133             	(2.47864358e-08 -4.98725261e-08 -2.13983849e-05)	(3.21367943e-08 -4.50607740e-08 3.33807714e-06)	(-7.35035857e-09 -4.81175212e-09 -2.47364620e-05)
134             	(2.50608242e-08 -4.88323005e-08 -2.14166662e-05)	(3.24254480e-08 -4.40485572e-08 3.32342700e-06)	(-7.36462380e-09 -4.78374330e-09 -2.47400932e-05)
135             	(2.54988288e-08 -4.78250778e-08 -2.14357885e-05)	(3.28739197e-08 -4.30783230e-08 3.30710463e-06)	(-7.37509092e-09 -4.74675486e-09 -2.47428931e-05)
136             	(2.61396969e-08 -4.71714219e-08 -2.14556163e-05)	(3.35239264e-08 -4.24674806e-08 3.28924511e-06)	(-7.38422951e-09 -4.70394131e-09 -2.47448614e-05)
137             	(2.67358098e-08 -4.68541486e-08 -2.14759725e-05)	(3.41257718e-08 -4.21974688e-08 3.27002298e-06)	(-7.38996199e-09 -4.65667983e-09 -2.47459954e-05)
138             	(2.72563794e-08 -4.66622779e-08 -2.14968062e-05)	(3.46497496e-08 -4.20557648e-08 3.24949957e-06)	(-7.39337021e-09 -4.60651309e-09 -2.47463058e-05)
139             	(2.77522374e-08 -4.66514223e-08 -2.15179480e-05)	(3.51486928e-08 -4.20944446e-08 3.22785304e-06)	(-7.39645534e-09 -4.55697766e-09 -2.47458011e-05)
140             	(2.84057128e-08 -4.64171670e-08 -2.15392839e-05)	(3.58044516e-08 -4.19075331e-08 3.20520966e-06)	(-7.39873874e-09 -4.50963384e-09 -2.47444935e-05)
141             	(2.95332156e-08 -4.60357195e-08 -2.15605218e-05)	(3.69329371e-08 -4.15692157e-08 3.18187751e-06)	(-7.39972148e-09 -4.46650380e-09 -2.47423993e-05)
142             	(3.04941816e-08 -4.59525846e-08 -2.15812516e-05)	(3.78937369e-08 -4.15216931e-08 3.15828548e-06)	(-7.39955524e-09 -4.43089149e-09 -2.47395370e-05)
143             	(3.15515771e-08 -4.62644301e-08 -2.16014831e-05)	(3.89489258e-08 -4.18627407e-08 3.13444483e-06)	(-7.39734873e-09 -4.40168942e-09 -2.47359279e-05)
144             	(3.27190001e-08 -4.66192749e-08 -2.16214127e-05)	(4.01125948e-08 -4.22426428e-08 3.11018664e-06)	(-7.39359472e-09 -4.37663216e-09 -2.47315993e-05)
145             	(3.39470802e-08 -4.68343984e-08 -2.16405426e-05)	(4.13351446e-08 -4.24808479e-08 3.08603954e-06)	(-7.38806440e-09 -4.35355053e-09 -2.47265822e-05)
146             	(3.51289524e-08 -4.72304861e-08 -2.16586921e-05)	(4.25104221e-08 -4.29009104e-08 3.06222243e-06)	(-7.38146973e-09 -4.32957564e-09 -2.47209145e-05)
147             	(3.63419173e-08 -4.77429206e-08 -2.16758064e-05)	(4.37146140e-08 -4.34379332e-08 3.03882845e-06)	(-7.37269666e-09 -4.30498746e-09 -2.47146348e-05)
148             	(3.73406814e-08 -4.82599055e-08 -2.16916234e-05)	(4.47025518e-08 -4.39807659e-08 3.01616185e-06)	(-7.36187041e-09 -4.27913960e-09 -2.47077852e-05)
149             	(3.83816936e-08 -4.88249165e-08 -2.17061542e-05)	(4.57274926e-08 -4.45721121e-08 2.99426020e-06)	(-7.34579902e-09 -4.25280446e-09 -2.47004144e-05)
150             	(3.92935101e-08 -4.93685225e-08 -2.17191814e-05)	(4.66176859e-08 -4.51427108e-08 2.97339128e-06)	(-7.32417582e-09 -4.22581169e-09 -2.46925727e-05)
151             	(4.01528481e-08 -4.99308631e-08 -2.17305731e-05)	(4.74514087e-08 -4.57327737e-08 2.95374290e-06)	(-7.29856063e-09 -4.19808933e-09 -2.46843160e-05)
152             	(4.09065664e-08 -5.04944136e-08 -2.17405367e-05)	(4.81782285e-08 -4.63262699e-08 2.93516425e-06)	(-7.27166206e-09 -4.16814370e-09 -2.46757009e-05)
153             	(4.15114526e-08 -5.11116033e-08 -2.17490373e-05)	(4.87544071e-08 -4.69750003e-08 2.91774915e-06)	(-7.24295450e-09 -4.13660304e-09 -2.46667865e-05)
154             	(4.19980945e-08 -5.18756060e-08 -2.17563089e-05)	(4.92104567e-08 -4.77715658e-08 2.90132445e-06)	(-7.21236222e-09 -4.10404015e-09 -2.46576333e-05)
155             	(4.23210252e-08 -5.30388326e-08 -2.17621867e-05)	(4.95002938e-08 -4.89684043e-08 2.88611612e-06)	(-7.17926864e-09 -4.07042837e-09 -2.46483028e-05)
156             	(4.25906728e-08 -5.45316451e-08 -2.17663983e-05)	(4.97335130e-08 -5.04952923e-08 2.87246333e-06)	(-7.14284023e-09 -4.03635279e-09 -2.46388616e-05)
157             	(4.27987398e-08 -5.58296608e-08 -2.17691913e-05)	(4.99036029e-08 -5.18248571e-08 2.86017933e-06)	(-7.10486318e-09 -4.00480365e-09 -2.46293706e-05)
158             	(4.29308666e-08 -5.67567846e-08 -2.17708148e-05)	(4.99962448e-08 -5.27780004e-08 2.84907660e-06)	(-7.06537813e-09 -3.97878424e-09 -2.46198914e-05)
159             	(4.29120184e-08 -5.72054732e-08 -2.17713059e-05)	(4.99360038e-08 -5.32451838e-08 2.83917840e-06)	(-7.02398534e-09 -3.96028944e-09 -2.46104843e-05)
160             	(4.27689943e-08 -5.77336219e-08 -2.17708783e-05)	(4.97496338e-08 -5.37839474e-08 2.83032721e-06)	(-6.98063945e-09 -3.94967450e-09 -2.46012055e-05)
161             	(4.25802512e-08 -5.86197324e-08 -2.17693976e-05)	(4.95144896e-08 -5.46732507e-08 2.82270717e-06)	(-6.93423840e-09 -3.94648168e-09 -2.45921048e-05)
162             	(4.22059177e-08 -5.97995181e-08 -2.17668509e-05)	(4.90904297e-08 -5.58482409e-08 2.81637881e-06)	(-6.88451206e-09 -3.95127715e-09 -2.45832297e-05)
163             	(4.16029399e-08 -6.07763668e-08 -2.17635901e-05)	(4.84359964e-08 -5.68128633e-08 2.81103350e-06)	(-6.83305652e-09 -3.96350344e-09 -2.45746236e-05)
164             	(4.10312448e-08 -6.10987210e-08 -2.17596972e-05)	(4.78118940e-08 -5.71150767e-08 2.80662642e-06)	(-6.78064928e-09 -3.98364435e-09 -2.45663236e-05)
165             	(4.05404997e-08 -6.10063522e-08 -2.17554078e-05)	(4.72670352e-08 -5.69952223e-08 2.80295282e-06)	(-6.72653550e-09 -4.01112983e-09 -2.45583607e-05)
166             	(3.99698558e-08 -6.08821364e-08 -2.17508907e-05)	(4.66402444e-08 -5.68363908e-08 2.79987131e-06)	(-6.67038858e-09 -4.04574557e-09 -2.45507620e-05)
167             	(3.94299348e-08 -6.07404457e-08 -2.17462527e-05)	(4.60404081e-08 -5.66531314e-08 2.79729617e-06)	(-6.61047332e-09 -4.08731427e-09 -2.45435488e-05)
168             	(3.87337565e-08 -6.05651726e-08 -2.17415659e-05)	(4.52800670e-08 -5.64313537e-08 2.79517473e-06)	(-6.54631052e-09 -4.13381893e-09 -2.45367406e-05)
169             	(3.81546450e-08 -6.00978180e-08 -2.17369815e-05)	(4.46307874e-08 -5.59134737e-08 2.79336977e-06)	(-6.47614242e-09 -4.18434431e-09 -2.45303513e-05)
170             	(3.75901219e-08 -5.93759111e-08 -2.17327056e-05)	(4.39909512e-08 -5.51389444e-08 2.79168598e-06)	(-6.40082930e-09 -4.23696675e-09 -2.45243916e-05)
171             	(3.73122978e-08 -5.84527652e-08 -2.17289280e-05)	(4.36306991e-08 -5.41624554e-08 2.78994014e-06)	(-6.31840127e-09 -4.29030986e-09 -2.45188682e-05)
172             	(3.72245584e-08 -5.74731541e-08 -2.17257944e-05)	(4.34525848e-08 -5.31298567e-08 2.78798858e-06)	(-6.22802637e-09 -4.34329742e-09 -2.45137830e-05)
173             	(3.73008429e-08 -5.65304374e-08 -2.17232902e-05)	(4.34308959e-08 -5.21368337e-08 2.78584346e-06)	(-6.13005300e-09 -4.39360370e-09 -2.45091337e-05)
174             	(3.74560913e-08 -5.56068835e-08 -2.17214733e-05)	(4.34805989e-08 -5.11672829e-08 2.78344104e-06)	(-6.02450752e-09 -4.43960062e-09 -2.45049143e-05)
175             	(3.78239909e-08 -5.46115045e-08 -2.17204250e-05)	(4.37344387e-08 -5.01303938e-08 2.78068984e-06)	(-5.91044781e-09 -4.48111063e-09 -2.45011149e-05)
176             	(3.82453969e-08 -5.35944324e-08 -2.17202212e-05)	(4.40324656e-08 -4.90767100e-08 2.77750068e-06)	(-5.78706872e-09 -4.51772234e-09 -2.44977219e-05)
177             	(3.88646673e-08 -5.25300884e-08 -2.17209400e-05)	(4.45187669e-08 -4.79814051e-08 2.77377808e-06)	(-5.65409963e-09 -4.54868335e-09 -2.44947181e-05)
178             	(3.97485619e-08 -5.13508643e-08 -2.17225689e-05)	(4.52598648e-08 -4.67766492e-08 2.76951478e-06)	(-5.51130296e-09 -4.57421516e-09 -2.44920837e-05)
179             	(4.08431156e-08 -5.02197624e-08 -2.17250800e-05)	(4.62013663e-08 -4.56269969e-08 2.76471756e-06)	(-5.35825064e-09 -4.59276546e-09 -2.44897975e-05)
180             	(4.20593409e-08 -4.92390285e-08 -2.17285094e-05)	(4.72555009e-08 -4.46337723e-08 2.75932659e-06)	(-5.19615996e-09 -4.60525621e-09 -2.44878360e-05)
181             	(4.33669236e-08 -4.83393027e-08 -2.17327030e-05)	(4.83927725e-08 -4.37291177e-08 2.75347195e-06)	(-5.02584893e-09 -4.61018497e-09 -2.44861750e-05)
182             	(4.47654790e-08 -4.75047092e-08 -2.17375544e-05)	(4.96134327e-08 -4.28961124e-08 2.74723598e-06)	(-4.84795375e-09 -4.60859680e-09 -2.44847903e-05)